data_642106-ICSD
#ÃÂÃÂ©2017 by Fachinformationszentrum Karlsruhe, and the U.S. Secretary of 
#Commerce on behalf of the United States.  All rights reserved.
_database_code_ICSD                642106
_audit_creation_date               2012/08/01
_chemical_name_systematic          'Lithium - Lt'
_chemical_formula_structural       Li
_chemical_formula_sum              Li1
_chemical_formula_weight           6.939
_publ_section_title
;
Crystal structure of lithium at 4.2 K
;
loop_
_citation_id
_citation_journal_abbrev
_citation_year
_citation_journal_volume
_citation_journal_issue
_citation_page_first
_citation_page_last
_citation_journal_id_ASTM
primary 'Physical Review Letters' 1984 53 1 64 65 PRLTAO
_publ_author_name                  'Overhauser, A.W.'
_cell_length_a                     3.111
_cell_length_b                     3.111
_cell_length_c                     22.86
_cell_angle_alpha                  90.
_cell_angle_beta                   90.
_cell_angle_gamma                  120.
_cell_volume                       191.61
_cell_formula_units_Z              9
_symmetry_space_group_name_H-M     'R -3 m H'
_symmetry_Int_Tables_number        166
_symmetry_cell_setting             hexagonal
loop_
_symmetry_equiv_pos_site_id
_symmetry_equiv_pos_as_xyz
  1	'x-y, -y, -z'
  2	'-x, -x+y, -z'
  3	'y, x, -z'
  4	'x-y, x, -z'
  5	'y, -x+y, -z'
  6	'-x, -y, -z'
  7	'-x+y, y, z'
  8	'x, x-y, z'
  9	'-y, -x, z'
 10	'-x+y, -x, z'
 11	'-y, x-y, z'
 12	'x, y, z'
 13	'x-y+2/3, -y+1/3, -z+1/3'
 14	'x-y+1/3, -y+2/3, -z+2/3'
 15	'-x+2/3, -x+y+1/3, -z+1/3'
 16	'-x+1/3, -x+y+2/3, -z+2/3'
 17	'y+2/3, x+1/3, -z+1/3'
 18	'y+1/3, x+2/3, -z+2/3'
 19	'x-y+2/3, x+1/3, -z+1/3'
 20	'x-y+1/3, x+2/3, -z+2/3'
 21	'y+2/3, -x+y+1/3, -z+1/3'
 22	'y+1/3, -x+y+2/3, -z+2/3'
 23	'-x+2/3, -y+1/3, -z+1/3'
 24	'-x+1/3, -y+2/3, -z+2/3'
 25	'-x+y+2/3, y+1/3, z+1/3'
 26	'-x+y+1/3, y+2/3, z+2/3'
 27	'x+2/3, x-y+1/3, z+1/3'
 28	'x+1/3, x-y+2/3, z+2/3'
 29	'-y+2/3, -x+1/3, z+1/3'
 30	'-y+1/3, -x+2/3, z+2/3'
 31	'-x+y+2/3, -x+1/3, z+1/3'
 32	'-x+y+1/3, -x+2/3, z+2/3'
 33	'-y+2/3, x-y+1/3, z+1/3'
 34	'-y+1/3, x-y+2/3, z+2/3'
 35	'x+2/3, y+1/3, z+1/3'
 36	'x+1/3, y+2/3, z+2/3'
loop_
_atom_type_symbol
_atom_type_oxidation_number
Li0+	0
loop_
_atom_site_label
_atom_site_type_symbol
_atom_site_symmetry_multiplicity
_atom_site_Wyckoff_symbol
_atom_site_fract_x
_atom_site_fract_y
_atom_site_fract_z
_atom_site_occupancy
_atom_site_attached_hydrogens
Li1 Li0+ 3 a 0 0 0 1. 0 
Li2 Li0+ 6 c 0 0 0.2222 1. 0 

#End of data_642106-ICSD


